# vtk DataFile Version 2.0
TYPHON-NS
ASCII
DATASET UNSTRUCTURED_GRID
POINTS      2601 float
    0.00000000E+00    0.00000000E+00    0.00000000E+00
    0.50000002E-03    0.00000000E+00    0.00000000E+00
    0.00000000E+00    0.97999998E-06    0.00000000E+00
    0.50000002E-03    0.97999998E-06    0.00000000E+00
    0.00000000E+00    0.21221333E-05    0.00000000E+00
    0.50000002E-03    0.21221333E-05    0.00000000E+00
    0.00000000E+00    0.34532238E-05    0.00000000E+00
    0.50000002E-03    0.34532238E-05    0.00000000E+00
    0.00000000E+00    0.50045328E-05    0.00000000E+00
    0.50000002E-03    0.50045328E-05    0.00000000E+00
    0.00000000E+00    0.68124937E-05    0.00000000E+00
    0.50000002E-03    0.68124937E-05    0.00000000E+00
    0.00000000E+00    0.89195682E-05    0.00000000E+00
    0.50000002E-03    0.89195682E-05    0.00000000E+00
    0.00000000E+00    0.11375241E-04    0.00000000E+00
    0.50000002E-03    0.11375241E-04    0.00000000E+00
    0.00000000E+00    0.14237186E-04    0.00000000E+00
    0.50000002E-03    0.14237186E-04    0.00000000E+00
    0.00000000E+00    0.17572618E-04    0.00000000E+00
    0.50000002E-03    0.17572618E-04    0.00000000E+00
    0.00000000E+00    0.21459871E-04    0.00000000E+00
    0.50000002E-03    0.21459871E-04    0.00000000E+00
    0.00000000E+00    0.25990239E-04    0.00000000E+00
    0.50000002E-03    0.25990239E-04    0.00000000E+00
    0.00000000E+00    0.31270123E-04    0.00000000E+00
    0.50000002E-03    0.31270123E-04    0.00000000E+00
    0.00000000E+00    0.37423521E-04    0.00000000E+00
    0.50000002E-03    0.37423521E-04    0.00000000E+00
    0.00000000E+00    0.44594952E-04    0.00000000E+00
    0.50000002E-03    0.44594952E-04    0.00000000E+00
    0.00000000E+00    0.52952837E-04    0.00000000E+00
    0.50000002E-03    0.52952837E-04    0.00000000E+00
    0.00000000E+00    0.62693471E-04    0.00000000E+00
    0.50000002E-03    0.62693471E-04    0.00000000E+00
    0.00000000E+00    0.74045623E-04    0.00000000E+00
    0.50000002E-03    0.74045623E-04    0.00000000E+00
    0.00000000E+00    0.87275890E-04    0.00000000E+00
    0.50000002E-03    0.87275890E-04    0.00000000E+00
    0.00000000E+00    0.10269501E-03    0.00000000E+00
    0.50000002E-03    0.10269501E-03    0.00000000E+00
    0.00000000E+00    0.12066510E-03    0.00000000E+00
    0.50000002E-03    0.12066510E-03    0.00000000E+00
    0.00000000E+00    0.14160819E-03    0.00000000E+00
    0.50000002E-03    0.14160819E-03    0.00000000E+00
    0.00000000E+00    0.16601618E-03    0.00000000E+00
    0.50000002E-03    0.16601618E-03    0.00000000E+00
    0.00000000E+00    0.19446226E-03    0.00000000E+00
    0.50000002E-03    0.19446226E-03    0.00000000E+00
    0.00000000E+00    0.22761452E-03    0.00000000E+00
    0.50000002E-03    0.22761452E-03    0.00000000E+00
    0.00000000E+00    0.26625159E-03    0.00000000E+00
    0.50000002E-03    0.26625159E-03    0.00000000E+00
    0.00000000E+00    0.31128083E-03    0.00000000E+00
    0.50000002E-03    0.31128083E-03    0.00000000E+00
    0.00000000E+00    0.36375981E-03    0.00000000E+00
    0.50000002E-03    0.36375981E-03    0.00000000E+00
    0.00000000E+00    0.42492105E-03    0.00000000E+00
    0.50000002E-03    0.42492105E-03    0.00000000E+00
    0.00000000E+00    0.49620093E-03    0.00000000E+00
    0.50000002E-03    0.49620093E-03    0.00000000E+00
    0.00000000E+00    0.57927350E-03    0.00000000E+00
    0.50000002E-03    0.57927350E-03    0.00000000E+00
    0.00000000E+00    0.67608984E-03    0.00000000E+00
    0.50000002E-03    0.67608984E-03    0.00000000E+00
    0.00000000E+00    0.78892364E-03    0.00000000E+00
    0.50000002E-03    0.78892364E-03    0.00000000E+00
    0.00000000E+00    0.92042488E-03    0.00000000E+00
    0.50000002E-03    0.92042488E-03    0.00000000E+00
    0.00000000E+00    0.10736820E-02    0.00000000E+00
    0.50000002E-03    0.10736820E-02    0.00000000E+00
    0.00000000E+00    0.12522944E-02    0.00000000E+00
    0.50000002E-03    0.12522944E-02    0.00000000E+00
    0.00000000E+00    0.14604568E-02    0.00000000E+00
    0.50000002E-03    0.14604568E-02    0.00000000E+00
    0.00000000E+00    0.17030579E-02    0.00000000E+00
    0.50000002E-03    0.17030579E-02    0.00000000E+00
    0.00000000E+00    0.19857956E-02    0.00000000E+00
    0.50000002E-03    0.19857956E-02    0.00000000E+00
    0.00000000E+00    0.23153101E-02    0.00000000E+00
    0.50000002E-03    0.23153101E-02    0.00000000E+00
    0.00000000E+00    0.26993400E-02    0.00000000E+00
    0.50000002E-03    0.26993400E-02    0.00000000E+00
    0.00000000E+00    0.31469048E-02    0.00000000E+00
    0.50000002E-03    0.31469048E-02    0.00000000E+00
    0.00000000E+00    0.36685157E-02    0.00000000E+00
    0.50000002E-03    0.36685157E-02    0.00000000E+00
    0.00000000E+00    0.42764232E-02    0.00000000E+00
    0.50000002E-03    0.42764232E-02    0.00000000E+00
    0.00000000E+00    0.49849041E-02    0.00000000E+00
    0.50000002E-03    0.49849041E-02    0.00000000E+00
    0.00000000E+00    0.58105974E-02    0.00000000E+00
    0.50000002E-03    0.58105974E-02    0.00000000E+00
    0.00000000E+00    0.67728958E-02    0.00000000E+00
    0.50000002E-03    0.67728958E-02    0.00000000E+00
    0.00000000E+00    0.78943986E-02    0.00000000E+00
    0.50000002E-03    0.78943986E-02    0.00000000E+00
    0.00000000E+00    0.92014456E-02    0.00000000E+00
    0.50000002E-03    0.92014456E-02    0.00000000E+00
    0.00000000E+00    0.10724734E-01    0.00000000E+00
    0.50000002E-03    0.10724734E-01    0.00000000E+00
    0.00000000E+00    0.12500000E-01    0.00000000E+00
    0.50000002E-03    0.12500000E-01    0.00000000E+00
    0.10000000E-02    0.00000000E+00    0.00000000E+00
    0.10000000E-02    0.97999998E-06    0.00000000E+00
    0.10000000E-02    0.21221333E-05    0.00000000E+00
    0.10000000E-02    0.34532238E-05    0.00000000E+00
    0.10000000E-02    0.50045328E-05    0.00000000E+00
    0.10000000E-02    0.68124937E-05    0.00000000E+00
    0.10000000E-02    0.89195682E-05    0.00000000E+00
    0.10000000E-02    0.11375241E-04    0.00000000E+00
    0.10000000E-02    0.14237186E-04    0.00000000E+00
    0.10000000E-02    0.17572618E-04    0.00000000E+00
    0.10000000E-02    0.21459871E-04    0.00000000E+00
    0.10000000E-02    0.25990239E-04    0.00000000E+00
    0.10000000E-02    0.31270123E-04    0.00000000E+00
    0.10000000E-02    0.37423521E-04    0.00000000E+00
    0.10000000E-02    0.44594952E-04    0.00000000E+00
    0.10000000E-02    0.52952837E-04    0.00000000E+00
    0.10000000E-02    0.62693471E-04    0.00000000E+00
    0.10000000E-02    0.74045623E-04    0.00000000E+00
    0.10000000E-02    0.87275890E-04    0.00000000E+00
    0.10000000E-02    0.10269501E-03    0.00000000E+00
    0.10000000E-02    0.12066510E-03    0.00000000E+00
    0.10000000E-02    0.14160819E-03    0.00000000E+00
    0.10000000E-02    0.16601618E-03    0.00000000E+00
    0.10000000E-02    0.19446226E-03    0.00000000E+00
    0.10000000E-02    0.22761452E-03    0.00000000E+00
    0.10000000E-02    0.26625159E-03    0.00000000E+00
    0.10000000E-02    0.31128083E-03    0.00000000E+00
    0.10000000E-02    0.36375981E-03    0.00000000E+00
    0.10000000E-02    0.42492105E-03    0.00000000E+00
    0.10000000E-02    0.49620093E-03    0.00000000E+00
    0.10000000E-02    0.57927350E-03    0.00000000E+00
    0.10000000E-02    0.67608984E-03    0.00000000E+00
    0.10000000E-02    0.78892364E-03    0.00000000E+00
    0.10000000E-02    0.92042488E-03    0.00000000E+00
    0.10000000E-02    0.10736820E-02    0.00000000E+00
    0.10000000E-02    0.12522944E-02    0.00000000E+00
    0.10000000E-02    0.14604568E-02    0.00000000E+00
    0.10000000E-02    0.17030579E-02    0.00000000E+00
    0.10000000E-02    0.19857956E-02    0.00000000E+00
    0.10000000E-02    0.23153101E-02    0.00000000E+00
    0.10000000E-02    0.26993400E-02    0.00000000E+00
    0.10000000E-02    0.31469048E-02    0.00000000E+00
    0.10000000E-02    0.36685157E-02    0.00000000E+00
    0.10000000E-02    0.42764232E-02    0.00000000E+00
    0.10000000E-02    0.49849041E-02    0.00000000E+00
    0.10000000E-02    0.58105974E-02    0.00000000E+00
    0.10000000E-02    0.67728958E-02    0.00000000E+00
    0.10000000E-02    0.78943986E-02    0.00000000E+00
    0.10000000E-02    0.92014456E-02    0.00000000E+00
    0.10000000E-02    0.10724734E-01    0.00000000E+00
    0.10000000E-02    0.12500000E-01    0.00000000E+00
    0.15000000E-02    0.00000000E+00    0.00000000E+00
    0.15000000E-02    0.97999998E-06    0.00000000E+00
    0.15000000E-02    0.21221333E-05    0.00000000E+00
    0.15000000E-02    0.34532238E-05    0.00000000E+00
    0.15000000E-02    0.50045328E-05    0.00000000E+00
    0.15000000E-02    0.68124937E-05    0.00000000E+00
    0.15000000E-02    0.89195682E-05    0.00000000E+00
    0.15000000E-02    0.11375241E-04    0.00000000E+00
    0.15000000E-02    0.14237186E-04    0.00000000E+00
    0.15000000E-02    0.17572618E-04    0.00000000E+00
    0.15000000E-02    0.21459871E-04    0.00000000E+00
    0.15000000E-02    0.25990239E-04    0.00000000E+00
    0.15000000E-02    0.31270123E-04    0.00000000E+00
    0.15000000E-02    0.37423521E-04    0.00000000E+00
    0.15000000E-02    0.44594952E-04    0.00000000E+00
    0.15000000E-02    0.52952837E-04    0.00000000E+00
    0.15000000E-02    0.62693471E-04    0.00000000E+00
    0.15000000E-02    0.74045623E-04    0.00000000E+00
    0.15000000E-02    0.87275890E-04    0.00000000E+00
    0.15000000E-02    0.10269501E-03    0.00000000E+00
    0.15000000E-02    0.12066510E-03    0.00000000E+00
    0.15000000E-02    0.14160819E-03    0.00000000E+00
    0.15000000E-02    0.16601618E-03    0.00000000E+00
    0.15000000E-02    0.19446226E-03    0.00000000E+00
    0.15000000E-02    0.22761452E-03    0.00000000E+00
    0.15000000E-02    0.26625159E-03    0.00000000E+00
    0.15000000E-02    0.31128083E-03    0.00000000E+00
[...]
CELL_DATA      2500
SCALARS DENSITY float
LOOKUP_TABLE default
    0.15314870E+01
    0.14409842E+01
    0.14152481E+01
    0.14210485E+01
    0.14436587E+01
    0.14744970E+01
    0.15079151E+01
    0.15400509E+01
    0.15683718E+01
    0.15914732E+01
    0.16089118E+01
    0.16209992E+01
    0.16285498E+01
    0.16326116E+01
    0.16342272E+01
    0.16342677E+01
    0.16333590E+01
    0.16318901E+01
    0.16300691E+01
    0.16279926E+01
    0.16257016E+01
    0.16232180E+01
    0.16205632E+01
    0.16177668E+01
    0.16148696E+01
    0.16119249E+01
    0.16089970E+01
    0.16061581E+01
    0.16034837E+01
    0.16010450E+01
    0.15989017E+01
    0.15970941E+01
    0.15956384E+01
    0.15945244E+01
    0.15937186E+01
    0.15931705E+01
    0.15928219E+01
    0.15926158E+01
    0.15925032E+01
    0.15924466E+01
    0.15924206E+01
    0.15924097E+01
    0.15924056E+01
    0.15924042E+01
    0.15924038E+01
    0.15924037E+01
    0.15924036E+01
    0.15924036E+01
    0.15924036E+01
    0.15924036E+01
    0.15702801E+01
    0.14901308E+01
    0.14341352E+01
    0.14019379E+01
    0.13917361E+01
    0.14005709E+01
    0.14240757E+01
    0.14567473E+01
    0.14928830E+01
    0.15274875E+01
    0.15570707E+01
    0.15799706E+01
    0.15961472E+01
    0.16066362E+01
    0.16129307E+01
    0.16164909E+01
    0.16184661E+01
    0.16196157E+01
    0.16203617E+01
    0.16208915E+01
    0.16212564E+01
    0.16214388E+01
    0.16213905E+01
    0.16210520E+01
    0.16203628E+01
    0.16192714E+01
    0.16177444E+01
    0.16157773E+01
    0.16134038E+01
    0.16107019E+01
    0.16077933E+01
    0.16048337E+01
    0.16019932E+01
    0.15994305E+01
    0.15972658E+01
    0.15955618E+01
    0.15943177E+01
    0.15934796E+01
    0.15929613E+01
    0.15926685E+01
    0.15925183E+01
    0.15924486E+01
    0.15924195E+01
    0.15924087E+01
    0.15924051E+01
    0.15924040E+01
    0.15924037E+01
    0.15924037E+01
    0.15924036E+01
    0.15924036E+01
    0.15764777E+01
    0.15132992E+01
    0.14607031E+01
    0.14207393E+01
    0.13955527E+01
    0.13867135E+01
    0.13944419E+01
    0.14168977E+01
    0.14497796E+01
    0.14872096E+01
    0.15232598E+01
    0.15535720E+01
    0.15761822E+01
    0.15912972E+01
    0.16004328E+01
    0.16054924E+01
    0.16081449E+01
    0.16095717E+01
    0.16104771E+01
    0.16112187E+01
    0.16119485E+01
    0.16127126E+01
    0.16135055E+01
    0.16142924E+01
    0.16150155E+01
    0.16155951E+01
    0.16159325E+01
    0.16159166E+01
    0.16154374E+01
    0.16144063E+01
    0.16127812E+01
    0.16105895E+01
    0.16079427E+01
    0.16050313E+01
    0.16020967E+01
    0.15993838E+01
    0.15970873E+01
    0.15953126E+01
    0.15940652E+01
    0.15932711E+01
    0.15928150E+01
    0.15925799E+01
    0.15924715E+01
    0.15924270E+01
    0.15924108E+01
    0.15924056E+01
    0.15924041E+01
    0.15924037E+01
    0.15924037E+01
    0.15924036E+01
    0.15792095E+01
    0.15252498E+01
    0.14772183E+01
    0.14369502E+01
    0.14066435E+01
    0.13886847E+01
    0.13851236E+01
    0.13968577E+01
    0.14224706E+01
    0.14577377E+01
    0.14963872E+01
    0.15321048E+01
    0.15606218E+01
    0.15805757E+01
    0.15929370E+01
    0.15997787E+01
    0.16032123E+01
    0.16048387E+01
    0.16056509E+01
    0.16061710E+01
    0.16066376E+01
    0.16071488E+01
    0.16077431E+01
    0.16084346E+01
    0.16092220E+01
    0.16100866E+01
    0.16109854E+01
    0.16118436E+01
    0.16125506E+01
    0.16129633E+01
    0.16129220E+01
    0.16122801E+01
    0.16109460E+01
    0.16089260E+01
    0.16063500E+01
    0.16034637E+01
    0.16005783E+01
    0.15979915E+01
    0.15959106E+01
    0.15944106E+01
    0.15934443E+01
    0.15928896E+01
    0.15926069E+01
    0.15924794E+01
    0.15924287E+01
    0.15924109E+01
    0.15924055E+01
    0.15924041E+01
    0.15924037E+01
    0.15924036E+01
    0.15809014E+01
    0.15328500E+01
    0.14884434E+01
    0.14492619E+01
    0.14172392E+01
    0.13946570E+01
    0.13839620E+01
    0.13871838E+01
    0.14050509E+01
    0.14355789E+01
    0.14737290E+01
    0.15126125E+01
    0.15460694E+01
    0.15708090E+01
    0.15867276E+01
    0.15957280E+01
    0.16002443E+01
    0.16022953E+01
    0.16031888E+01
    0.16036265E+01
    0.16039295E+01
    0.16042280E+01
    0.16045744E+01
    0.16049958E+01
    0.16055125E+01
    0.16061416E+01
    0.16068926E+01
    0.16077583E+01
    0.16087024E+01
    0.16096465E+01
    0.16104606E+01
    0.16109663E+01
    0.16109612E+01
    0.16102661E+01
    0.16087895E+01
    0.16065849E+01
    0.16038701E+01
    0.16009859E+01
    0.15982988E+01
    0.15960909E+01
    0.15944888E+01
    0.15934629E+01
    0.15928842E+01
    0.15925973E+01
    0.15924727E+01
    0.15924253E+01
    0.15924096E+01
    0.15924051E+01
    0.15924039E+01
    0.15924037E+01
    0.15819403E+01
    0.15380879E+01
    0.14965457E+01
    0.14586878E+01
    0.14262097E+01
    0.14011727E+01
    0.13859651E+01
    0.13830193E+01
    0.13941179E+01
    0.14191130E+01
    0.14547555E+01
    0.14947507E+01
    0.15318894E+01
    0.15610296E+01
    0.15806232E+01
    0.15920408E+01
    0.15978639E+01
    0.16004985E+01
    0.16015926E+01
    0.16020557E+01
    0.16023069E+01
    0.16025123E+01
    0.16027322E+01
    0.16029926E+01
    0.16033118E+01
    0.16037102E+01
    0.16042110E+01
    0.16048370E+01
    0.16056030E+01
    0.16065024E+01
    0.16074885E+01
    0.16084559E+01
    0.16092309E+01
    0.16095854E+01
    0.16092849E+01
    0.16081668E+01
    0.16062256E+01
    0.16036569E+01
    0.16008226E+01
    0.15981377E+01
    0.15959301E+01
    0.15943478E+01
    0.15933585E+01
    0.15928191E+01
    0.15925630E+01
    0.15924573E+01
    0.15924194E+01
    0.15924077E+01
    0.15924045E+01
    0.15924038E+01
    0.15828133E+01
    0.15421431E+01
    0.15029183E+01
    0.14663498E+01
    0.14339409E+01
    0.14075459E+01
    0.13893900E+01
    0.13819494E+01
    0.13874732E+01
    0.14070703E+01
    0.14391548E+01
    0.14786656E+01
    0.15182121E+01
    0.15511874E+01
    0.15744328E+01
    0.15884556E+01
    0.15957709E+01
    0.15991088E+01
    0.16004717E+01
    0.16010054E+01
    0.16012473E+01
    0.16014100E+01
    0.16015665E+01
    0.16017425E+01
    0.16019515E+01
    0.16022079E+01
    0.16025302E+01
    0.16029430E+01
    0.16034747E+01
    0.16041518E+01
    0.16049862E+01
    0.16059539E+01
    0.16069698E+01
    0.16078670E+01
    0.16084024E+01
    0.16083041E+01
    0.16073644E+01
    0.16055469E+01
    0.16030492E+01
    0.16002642E+01
    0.15976435E+01
    0.15955308E+01
    0.15940629E+01
    0.15931816E+01
    0.15927243E+01
    0.15925193E+01
    0.15924400E+01
    0.15924136E+01
    0.15924060E+01
    0.15924041E+01
    0.15834181E+01
    0.15452791E+01
    0.15079856E+01
    0.14726158E+01
    0.14405174E+01
    0.14133680E+01
    0.13932195E+01
    0.13824632E+01
    0.13835510E+01
    0.13982891E+01
    0.14264296E+01
    0.14643381E+01
    0.15051148E+01
    0.15412326E+01
    0.15679675E+01
    0.15847116E+01
    0.15936842E+01
    0.15978435E+01
    0.15995417E+01
    0.16001836E+01
    0.16004443E+01
    0.16005931E+01
    0.16007211E+01
    0.16008566E+01
    0.16010107E+01
    0.16011925E+01
    0.16014141E+01
    0.16016929E+01
    0.16020532E+01
    0.16025259E+01
    0.16031438E+01
    0.16039300E+01
    0.16048746E+01
    0.16059031E+01
    0.16068487E+01
    0.16074515E+01
    0.16074110E+01
    0.16064965E+01
    0.16046739E+01
    0.16021743E+01
    0.15994360E+01
    0.15969337E+01
    0.15949942E+01
    0.15937101E+01
    0.15929815E+01
    0.15926267E+01
    0.15924785E+01
    0.15924254E+01
    0.15924091E+01
    0.15924049E+01
    0.15839153E+01
    0.15478487E+01
    0.15121911E+01
    0.14779120E+01
    0.14462315E+01
    0.14186788E+01
    0.13971483E+01
    0.13839091E+01
    0.13814518E+01
    0.13919643E+01
    0.14161680E+01
    0.14517775E+01
    0.14927948E+01
    0.15313243E+01
    0.15612817E+01
    0.15807923E+01
    0.15915581E+01
    0.15966468E+01
    0.15987387E+01
    0.15995155E+01
    0.15998086E+01
    0.15999543E+01
    0.16000666E+01
    0.16001794E+01
    0.16003031E+01
    0.16004441E+01
    0.16006099E+01
    0.16008118E+01
    0.16010665E+01
    0.16013982E+01
    0.16018390E+01
    0.16024261E+01
    0.16031888E+01
    0.16041236E+01
    0.16051564E+01
    0.16061088E+01
    0.16066969E+01
    0.16065974E+01
    0.16055797E+01
    0.16036494E+01
    0.16011038E+01
    0.15984327E+01
    0.15961105E+01
    0.15944103E+01
    0.15933542E+01
    0.15927958E+01
    0.15925439E+01
    0.15924470E+01
    0.15924152E+01
    0.15924064E+01
    0.15843681E+01
    0.15500421E+01
    0.15157960E+01
    0.14825082E+01
    0.14512924E+01
    0.14235531E+01
    0.14010447E+01
    0.13859060E+01
    0.13805844E+01
    0.13874545E+01
    0.14079254E+01
    0.14408574E+01
    0.14813385E+01
    0.15215746E+01
    0.15544224E+01
    0.15766888E+01
    0.15893628E+01
    0.15954873E+01
    0.15980338E+01
    0.15989722E+01
    0.15993081E+01
    0.15994561E+01
    0.15995577E+01
    0.15996541E+01
    0.15997569E+01
    0.15998712E+01
    0.16000020E+01
    0.16001568E+01
    0.16003466E+01
    0.16005882E+01
    0.16009063E+01
    0.16013348E+01
    0.16019139E+01
    0.16026764E+01
    0.16036179E+01
    0.16046531E+01
    0.16055779E+01
    0.16060769E+01
    0.16058127E+01
    0.16045859E+01
    0.16024822E+01
    0.15998891E+01
    0.15973379E+01
    0.15952647E+01
    0.15938529E+01
    0.15930415E+01
    0.15926465E+01
    0.15924834E+01
    0.15924262E+01
    0.15924092E+01
    0.15847360E+01
    0.15519043E+01
    0.15188973E+01
    0.14865158E+01
    0.14557832E+01
    0.14279968E+01
    0.14047881E+01
    0.13881699E+01
    0.13805092E+01
    0.13842675E+01
    0.14013009E+01
    0.14313996E+01
    0.14707648E+01
    0.15120559E+01
    0.15474121E+01
    0.15723648E+01
    0.15870341E+01
    0.15942964E+01
    0.15973620E+01
    0.15984927E+01
    0.15988849E+01
    0.15990423E+01
    0.15991391E+01
    0.15992255E+01
    0.15993149E+01
    0.15994119E+01
    0.15995203E+01
    0.15996452E+01
    0.15997943E+01
    0.15999790E+01
    0.16002166E+01
    0.16005334E+01
    0.16009660E+01
    0.16015574E+01
    0.16023409E+01
    0.16033032E+01
    0.16043338E+01
    0.16051887E+01
    0.16055174E+01
    0.16049881E+01
    0.16034738E+01
    0.16011786E+01
    0.15985860E+01
    0.15962345E+01
    0.15944747E+01
    0.15933747E+01
    0.15927967E+01
    0.15925405E+01
    0.15924446E+01
    0.15924144E+01
    0.15850414E+01
    0.15535105E+01
    0.15216021E+01
    0.14900505E+01
    0.14598008E+01
    0.14320579E+01
    0.14083453E+01
    0.13905598E+01
    0.13809755E+01
    0.13820751E+01
    0.13959937E+01
    0.14232503E+01
    0.14610924E+01
    0.15028637E+01
    0.15403218E+01
    0.15678389E+01
    0.15845577E+01
    0.15930489E+01
    0.15966968E+01
    0.15980503E+01
    0.15985108E+01
    0.15986832E+01
    0.15987789E+01
    0.15988594E+01
    0.15989403E+01
    0.15990262E+01
    0.15991201E+01
    0.15992259E+01
    0.15993490E+01
    0.15994974E+01
    0.15996834E+01
    0.15999256E+01
    0.16002527E+01
    0.16007049E+01
    0.16013279E+01
    0.16021510E+01
    0.16031412E+01
    0.16041466E+01
    0.16048709E+01
    0.16049359E+01
    0.16040516E+01
    0.16022119E+01
    0.15997647E+01
    0.15972659E+01
    0.15952038E+01
    0.15938001E+01
    0.15930037E+01
    0.15926250E+01
    0.15924736E+01
    0.15924230E+01
    0.15853119E+01
    0.15549264E+01
    0.15240004E+01
    0.14932102E+01
    0.14634332E+01
    0.14357936E+01
    0.14117199E+01
    0.13930034E+01
    0.13818229E+01
    0.13806390E+01
    0.13917575E+01
    0.14162521E+01
    0.14523047E+01
    0.14940703E+01
    0.15332239E+01
    0.15631449E+01
    0.15819383E+01
    0.15917394E+01
    0.15960315E+01
    0.15976387E+01
    0.15981795E+01
    0.15983706E+01
    0.15984670E+01
    0.15985431E+01
    0.15986175E+01
    0.15986952E+01
    0.15987787E+01
    0.15988711E+01
    0.15989765E+01
    0.15991009E+01
    0.15992528E+01
    0.15994457E+01
    0.15997004E+01
    0.16000494E+01
    0.16005371E+01
    0.16012105E+01
    0.16020872E+01
    0.16030995E+01
    0.16040367E+01
    0.16045453E+01
    0.16042457E+01
    0.16029428E+01
    0.16007979E+01
    0.15982981E+01
    0.15960125E+01
    0.15943148E+01
    0.15932741E+01
    0.15927433E+01
    0.15925171E+01
    0.15924368E+01
    0.15855562E+01
    0.15561901E+01
    0.15261503E+01
    0.14960621E+01
    0.14667432E+01
    0.14392470E+01
    0.14149179E+01
    0.13954516E+01
    0.13829333E+01
    0.13797771E+01
    0.13883860E+01
    0.14102490E+01
    0.14443537E+01
    0.14857156E+01
    0.15261741E+01
    0.15583102E+01
    0.15791768E+01
    0.15903583E+01
    0.15953563E+01
    0.15972498E+01
    0.15978837E+01
    0.15980979E+01
    0.15981964E+01
    0.15982691E+01
    0.15983382E+01
    0.15984092E+01
    0.15984844E+01
    0.15985665E+01
    0.15986587E+01
    0.15987657E+01
    0.15988939E+01
    0.15990531E+01
    0.15992582E+01
    0.15995339E+01
    0.15999173E+01
    0.16004575E+01
    0.16011983E+01
    0.16021337E+01
    0.16031414E+01
    0.16039368E+01
    0.16041220E+01
    0.16033659E+01
    0.16016326E+01
    0.15992728E+01
    0.15968648E+01
    0.15949082E+01
    0.15936113E+01
    0.15929017E+01
    0.15925791E+01
    0.15924576E+01
    0.15857954E+01
    0.15573449E+01
    0.15281103E+01
    0.14986721E+01
    0.14697949E+01
    0.14424693E+01
    0.14179648E+01
    0.13978901E+01
    0.13842402E+01
    0.13793681E+01
    0.13857194E+01
    0.14051028E+01
    0.14371806E+01
    0.14778222E+01
    0.15192221E+01
    0.15533673E+01
    0.15762834E+01
    0.15889057E+01
    0.15946699E+01
    0.15968837E+01
    0.15976241E+01
    0.15978654E+01
    0.15979672E+01
    0.15980368E+01
    0.15981008E+01
    0.15981655E+01
    0.15982331E+01
    0.15983060E+01
    0.15983870E+01
    0.15984800E+01
    0.15985900E+01
    0.15987245E+01
    0.15988944E+01
    0.15991179E+01
    0.15994239E+01
    0.15998562E+01
    0.16004668E+01
    0.16012876E+01
    0.16022701E+01
    0.16032154E+01
    0.16037621E+01
    0.16035071E+01
    0.16022413E+01
    0.16001405E+01
    0.15977214E+01
    0.15955632E+01
    0.15940142E+01
    0.15931046E+01
    0.15926638E+01
    0.15924878E+01
    0.15859954E+01
    0.15583756E+01
    0.15298796E+01
    0.15010476E+01
    0.14725967E+01
    0.14454611E+01
    0.14208428E+01
    0.14002714E+01
    0.13856564E+01
    0.13792823E+01
    0.13836123E+01
    0.14006790E+01
    0.14307095E+01
    0.14703854E+01
    0.15123934E+01
    0.15483274E+01
    0.15732448E+01
    0.15873555E+01
    0.15939444E+01
    0.15965147E+01
    0.15973777E+01
    0.15976524E+01
    0.15977604E+01
    0.15978290E+01
    0.15978899E+01
    0.15979504E+01
    0.15980127E+01
    0.15980788E+01
    0.15981511E+01
    0.15982331E+01
    0.15983290E+01
    0.15984446E+01
    0.15985885E+01
    0.15987740E+01
    0.15990234E+01
    0.15993722E+01
    0.15998707E+01
    0.16005689E+01
    0.16014711E+01
    0.16024611E+01
    0.16032466E+01
    0.16034120E+01
    0.16026209E+01
    0.16008654E+01
    0.15985438E+01
    0.15962573E+01
    0.15944774E+01
    0.15933552E+01
    0.15927755E+01
    0.15925301E+01
    0.15861728E+01
    0.15593105E+01
    0.15314943E+01
    0.15032282E+01
    0.14751867E+01
    0.14482530E+01
    0.14235683E+01
    0.14025897E+01
    0.13871471E+01
    0.13794553E+01
    0.13819717E+01
    0.13968853E+01
    0.14248888E+01
    0.14634148E+01
    0.15057325E+01
    0.15432287E+01
    0.15700779E+01
    0.15857100E+01
    0.15931773E+01
    0.15961392E+01
    0.15971404E+01
    0.15974539E+01
    0.15975699E+01
    0.15976386E+01
    0.15976976E+01
    0.15977553E+01
    0.15978138E+01
    0.15978751E+01
    0.15979412E+01
    0.15980150E+01
    0.15981002E+01
    0.15982017E+01
    0.15983260E+01
    0.15984836E+01
    0.15986911E+01
    0.15989768E+01
    0.15993843E+01
    0.15999685E+01
    0.16007659E+01
    0.16017287E+01
    0.16026460E+01
    0.16031354E+01
    0.16027869E+01
    0.16014266E+01
    0.15992978E+01
    0.15969656E+01
    0.15949913E+01
    0.15936539E+01
    0.15929174E+01
    0.15925872E+01
    0.15863355E+01
    0.15601672E+01
    0.15329791E+01
    0.15052426E+01
    0.14775934E+01
    0.14508687E+01
    0.14261543E+01
    0.14048415E+01
    0.13886858E+01
    0.13798330E+01
    0.13807175E+01
    0.13936359E+01
    0.14196604E+01
    0.14569042E+01
    0.14992703E+01
    0.15381036E+01
    0.15667987E+01
    0.15839729E+01
    0.15923680E+01
    0.15957568E+01
    0.15969123E+01
    0.15972700E+01
    0.15973954E+01
    0.15974646E+01
    0.15975220E+01
    0.15975772E+01
    0.15976327E+01
    0.15976901E+01
    0.15977514E+01
    0.15978190E+01
    0.15978961E+01
    0.15979867E+01
    0.15980963E+01
    0.15982329E+01
    0.15984095E+01
    0.15986478E+01
    0.15989838E+01
    0.15994697E+01
    0.16001580E+01
    0.16010506E+01
    0.16020153E+01
    0.16027318E+01
    0.16027677E+01
    0.16018178E+01
    0.15999568E+01
    0.15976625E+01
    0.15955433E+01
    0.15939991E+01
    0.15930924E+01
    0.15926618E+01
    0.15864857E+01
    0.15609567E+01
    0.15343514E+01
    0.15071118E+01
    0.14798384E+01
    0.14533266E+01
    0.14286115E+01
    0.14070242E+01
    0.13902513E+01
    0.13803707E+01
    0.13797827E+01
    0.13908548E+01
    0.14149660E+01
    0.14508373E+01
    0.14930266E+01
    0.15329781E+01
    0.15634204E+01
    0.15821456E+01
    0.15915136E+01
    0.15953646E+01
    0.15966916E+01
    0.15970994E+01
    0.15972359E+01
    0.15973060E+01
    0.15973620E+01
    0.15974150E+01
    0.15974677E+01
    0.15975218E+01
    0.15975789E+01
    0.15976413E+01
    0.15977119E+01
    0.15977939E+01
    0.15978921E+01
    0.15980127E+01
    0.15981660E+01
    0.15983687E+01
    0.15986497E+01
    0.15990547E+01
    0.15996409E+01
    0.16004424E+01
    0.16013940E+01
    0.16022505E+01
    0.16025984E+01
    0.16020449E+01
    0.16005027E+01
    0.15983244E+01
    0.15961182E+01
    0.15943865E+01
    0.15933021E+01
    0.15927566E+01
    0.15866254E+01
    0.15616877E+01
    0.15356255E+01
    0.15088535E+01
    0.14819404E+01
    0.14556430E+01
    0.14309502E+01
    0.14091379E+01
    0.13918283E+01
    0.13810337E+01
    0.13791131E+01
    0.13884773E+01
    0.14107517E+01
    0.14451936E+01
    0.14870151E+01
    0.15278754E+01
    0.15599561E+01
    0.15802299E+01
    0.15906113E+01
    0.15949595E+01
    0.15964757E+01
    0.15969402E+01
    0.15970897E+01
    0.15971612E+01
    0.15972160E+01
    0.15972670E+01
    0.15973173E+01
    0.15973683E+01
    0.15974218E+01
    0.15974797E+01
    0.15975446E+01
    0.15976196E+01
    0.15977084E+01
    0.15978165E+01
    0.15979518E+01
    0.15981275E+01
    0.15983662E+01
    0.15987065E+01
    0.15992032E+01
    0.15999081E+01
    0.16008075E+01
    0.16017318E+01
    0.16023158E+01
    0.16021230E+01
    0.16009260E+01
    0.15989307E+01
    0.15966998E+01
    0.15948098E+01
    0.15935468E+01
    0.15928738E+01
    0.15867564E+01
    0.15623682E+01
    0.15368137E+01
    0.15104830E+01
    0.14839154E+01
    0.14578324E+01
    0.14331804E+01
    0.14111840E+01
    0.13934059E+01
    0.13817952E+01
    0.13786648E+01
    0.13864485E+01
    0.14069681E+01
    0.14399504E+01
    0.14812442E+01
    0.15228160E+01
    0.15564192E+01
    0.15782288E+01
    0.15896591E+01
    0.15945388E+01
    0.15962627E+01
    0.15967907E+01
    0.15969551E+01
    0.15970288E+01
    0.15970826E+01
    0.15971319E+01
    0.15971799E+01
    0.15972282E+01
    0.15972784E+01
    0.15973323E+01
    0.15973923E+01
    0.15974612E+01
    0.15975422E+01
    0.15976400E+01
    0.15977610E+01
    0.15979156E+01
    0.15981219E+01
    0.15984110E+01
    0.15988324E+01
    0.15994445E+01
    0.16002699E+01
    0.16012068E+01
    0.16019548E+01
    0.16020727E+01
    0.16012253E+01
    0.15994655E+01
    0.15972721E+01
    0.15952607E+01
    0.15938254E+01