# vtk DataFile Version 2.0
TYPHON-NS
ASCII
DATASET UNSTRUCTURED_GRID
POINTS        18 float
    0.00000000E+00    0.00000000E+00    0.00000000E+00
    0.20000000E+02    0.00000000E+00    0.00000000E+00
    0.00000000E+00    0.50000000E+01    0.00000000E+00
    0.20000000E+02    0.50000000E+01    0.00000000E+00
    0.00000000E+00    0.10000000E+02    0.00000000E+00
    0.20000000E+02    0.10000000E+02    0.00000000E+00
    0.40000000E+02    0.00000000E+00    0.00000000E+00
    0.40000000E+02    0.50000000E+01    0.00000000E+00
    0.40000000E+02    0.10000000E+02    0.00000000E+00
    0.60000000E+02    0.00000000E+00    0.00000000E+00
    0.60000000E+02    0.50000000E+01    0.00000000E+00
    0.60000000E+02    0.10000000E+02    0.00000000E+00
    0.80000000E+02    0.00000000E+00    0.00000000E+00
    0.80000000E+02    0.50000000E+01    0.00000000E+00
    0.80000000E+02    0.10000000E+02    0.00000000E+00
    0.10000000E+03    0.00000000E+00    0.00000000E+00
    0.10000000E+03    0.50000000E+01    0.00000000E+00
    0.10000000E+03    0.10000000E+02    0.00000000E+00
CELLS         10        50
  4        0        1        3        2
  4        2        3        5        4
  4        1        6        7        3
  4        3        7        8        5
  4        6        9       10        7
  4        7       10       11        8
  4        9       12       13       10
  4       10       13       14       11
  4       12       15       16       13
  4       13       16       17       14
CELL_TYPES        10
 9
 9
 9
 9
 9
 9
 9
 9
 9
 9
CELL_DATA        10
SCALARS DENSITY float
LOOKUP_TABLE default
    0.11759653E-04
    0.11759653E-04
    0.11759653E-04
    0.11759653E-04
    0.11759653E-04
    0.11759653E-04
    0.11759653E-04
    0.11759653E-04
    0.11759653E-04
    0.11759653E-04
SCALARS PRESSURE float
LOOKUP_TABLE default
    0.10130000E+06
    0.10130000E+06
    0.10130000E+06
    0.10130000E+06
    0.10130000E+06
    0.10130000E+06
    0.10130000E+06
    0.10130000E+06
    0.10130000E+06
    0.10130000E+06
VECTORS VELOCITY float
   -0.18606169E-11    0.53109583E-02    0.00000000E+00
    0.19648754E-11    0.53109583E-02    0.00000000E+00
   -0.29049351E-13    0.54893699E-02    0.00000000E+00
    0.33553170E-11    0.54893699E-02    0.00000000E+00
    0.11341688E-11    0.54908659E-02    0.00000000E+00
    0.13035744E-10    0.54908659E-02    0.00000000E+00
    0.19576724E-11    0.54908742E-02    0.00000000E+00
    0.13770684E-10    0.54908742E-02    0.00000000E+00
   -0.12125324E-27    0.54908742E-02    0.00000000E+00
    0.14423283E-10    0.54908742E-02    0.00000000E+00
