# vtk DataFile Version 2.0
TYPHON-NS
ASCII
DATASET UNSTRUCTURED_GRID
POINTS       118 double
 -1.00000001E-001  0.00000000E+000  0.00000000E+000
  9.09090936E-002 -4.54545468E-002  0.00000000E+000
  1.81818187E-001 -9.09090936E-002  0.00000000E+000
  2.72727281E-001 -1.36363640E-001  0.00000000E+000
  3.63636374E-001 -1.81818187E-001  0.00000000E+000
  4.54545498E-001 -2.27272749E-001  0.00000000E+000
  5.45454562E-001 -2.72727281E-001  0.00000000E+000
  6.36363685E-001 -3.18181843E-001  0.00000000E+000
  7.27272749E-001 -3.63636374E-001  0.00000000E+000
  8.18181813E-001 -4.09090906E-001  0.00000000E+000
  9.09090996E-001 -4.54545498E-001  0.00000000E+000
  1.00000000E+000 -4.00000006E-001  0.00000000E+000
  1.00000000E+000 -2.99999982E-001  0.00000000E+000
  1.00000000E+000 -1.99999988E-001  0.00000000E+000
  1.00000000E+000 -9.99999791E-002  0.00000000E+000
  1.00000000E+000  1.49011612E-008  0.00000000E+000
  1.00000000E+000  1.00000009E-001  0.00000000E+000
  1.00000000E+000  2.00000048E-001  0.00000000E+000
  1.00000000E+000  3.00000042E-001  0.00000000E+000
  1.00000000E+000  4.00000125E-001  0.00000000E+000
  1.00000000E+000  5.00000119E-001  0.00000000E+000
  1.00000000E+000  6.00000143E-001  0.00000000E+000
  1.00000000E+000  7.00000167E-001  0.00000000E+000
  1.00000000E+000  8.00000191E-001  0.00000000E+000
  1.00000000E+000  9.00000215E-001  0.00000000E+000
  9.25000012E-001  9.37500000E-001  0.00000000E+000
  8.50000024E-001  8.75000000E-001  0.00000000E+000
  7.74999976E-001  8.12500000E-001  0.00000000E+000
  6.99999988E-001  7.50000000E-001  0.00000000E+000
  6.25000000E-001  6.87500000E-001  0.00000000E+000
  5.50000012E-001  6.25000000E-001  0.00000000E+000
  4.74999994E-001  5.62500000E-001  0.00000000E+000
  4.00000006E-001  5.00000000E-001  0.00000000E+000
  3.24999988E-001  4.37500000E-001  0.00000000E+000
  2.50000000E-001  3.75000000E-001  0.00000000E+000
  1.74999997E-001  3.12500000E-001  0.00000000E+000
  9.99999940E-002  2.50000000E-001  0.00000000E+000
  2.49999985E-002  1.87500000E-001  0.00000000E+000
 -5.00000045E-002  1.25000000E-001  0.00000000E+000
 -1.25000000E-001  6.25000000E-002  0.00000000E+000
 -2.00000003E-001  0.00000000E+000  0.00000000E+000
  0.00000000E+000  0.00000000E+000  0.00000000E+000
  1.00000000E+000 -5.00000000E-001  0.00000000E+000
  1.00000000E+000  1.00000000E+000  0.00000000E+000
  9.21576560E-001  8.30534816E-001  0.00000000E+000
  4.07368690E-001 -9.17658061E-002  0.00000000E+000
  4.50758636E-001 -5.14906133E-003  0.00000000E+000
  4.97207761E-001  7.28685334E-002  0.00000000E+000
  5.61362207E-001  1.29498497E-001  0.00000000E+000
  6.09097958E-001  2.32334018E-001  0.00000000E+000
  6.50737703E-001  3.21886420E-001  0.00000000E+000
  6.92434311E-001  4.03597206E-001  0.00000000E+000
  7.28164494E-001  4.77976114E-001  0.00000000E+000
  7.42961466E-001  5.48546553E-001  0.00000000E+000
  8.13662589E-001  6.07570529E-001  0.00000000E+000
  8.53457451E-001  6.87978983E-001  0.00000000E+000
  8.87508512E-001  7.57753491E-001  0.00000000E+000
  8.91027093E-001  4.26458836E-001  0.00000000E+000
  8.01756799E-001  4.51273084E-001  0.00000000E+000
  9.09691632E-001  5.95467150E-001  0.00000000E+000
  9.48858857E-001  8.89344990E-001  0.00000000E+000
  9.04073954E-001  5.13037622E-001  0.00000000E+000
  8.15613687E-001  5.30106962E-001  0.00000000E+000
  5.43473542E-001  4.95770127E-001  0.00000000E+000
  6.18958950E-001  4.43474621E-001  0.00000000E+000
  4.68018353E-001  4.13731992E-001  0.00000000E+000
  5.64984083E-001  3.65558505E-001  0.00000000E+000
  3.20897073E-001  3.10939938E-001  0.00000000E+000
  3.93163860E-001  2.55165815E-001  0.00000000E+000
  4.73802090E-001  1.97899565E-001  0.00000000E+000
  3.19501519E-001 -4.59095985E-002  0.00000000E+000
  3.66232663E-001  4.12814058E-002  0.00000000E+000
  4.18049395E-001  1.22554034E-001  0.00000000E+000
  9.16737795E-001  2.23093987E-001  0.00000000E+000
  8.27798903E-001  2.52040505E-001  0.00000000E+000
  7.38471448E-001  2.84697860E-001  0.00000000E+000
  7.72773445E-001  3.70247751E-001  0.00000000E+000
  6.81849241E-001  6.18393898E-001  0.00000000E+000
  6.12734377E-001  5.61847806E-001  0.00000000E+000
  6.75704837E-001  5.07961273E-001  0.00000000E+000
  5.22741437E-001  2.82054216E-001  0.00000000E+000
  5.85291803E-001 -1.77667618E-001  0.00000000E+000
  6.22322619E-001 -8.29238668E-002  0.00000000E+000
  6.46484077E-001  9.58773494E-003  0.00000000E+000
  6.69826031E-001  9.89595354E-002  0.00000000E+000
  7.03968108E-001  1.93632811E-001  0.00000000E+000
  8.96653295E-001  1.23050235E-001  0.00000000E+000
  7.99196899E-001  1.57760978E-001  0.00000000E+000
  8.58823061E-001  3.41243744E-001  0.00000000E+000
  9.21049714E-001  6.61148787E-001  0.00000000E+000
  4.43286777E-001  3.31278265E-001  0.00000000E+000
  8.91942084E-001 -9.76305753E-002  0.00000000E+000
  8.05180013E-001 -1.07004844E-001  0.00000000E+000
  7.28261352E-001 -1.20657936E-001  0.00000000E+000
  8.72113466E-001  9.77717899E-003  0.00000000E+000
  7.69234717E-001  6.13428690E-002  0.00000000E+000
  7.36896217E-001 -2.21453607E-002  0.00000000E+000
  3.89300555E-001  3.73362541E-001  0.00000000E+000
  7.71928847E-001 -2.66943216E-001  0.00000000E+000
  7.99531639E-001 -1.72423050E-001  0.00000000E+000
  8.93478692E-001 -1.95488825E-001  0.00000000E+000
  7.46801019E-001  6.75327420E-001  0.00000000E+000
  4.94657338E-001 -1.35368928E-001  0.00000000E+000
  6.80461407E-001 -2.20862657E-001  0.00000000E+000
  8.82820010E-001 -3.12067717E-001  0.00000000E+000
  9.43890214E-001  3.16084474E-001  0.00000000E+000
  2.50603050E-001  2.36763343E-001  0.00000000E+000
  3.34506452E-001  1.76718622E-001  0.00000000E+000
  2.30568290E-001  1.29548076E-003  0.00000000E+000
  2.75716871E-001  9.11855921E-002  0.00000000E+000
  8.04729879E-001 -3.97910103E-002  0.00000000E+000
  1.71277970E-001  1.44639462E-001  0.00000000E+000
  1.44520342E-001  4.90298569E-002  0.00000000E+000
  5.31636715E-001 -4.52494249E-002  0.00000000E+000
  5.59172690E-001  4.16763350E-002  0.00000000E+000
  9.30637002E-001 -3.88871074E-001  0.00000000E+000
  8.51995796E-002  9.52923298E-002  0.00000000E+000
  7.91752815E-001  7.25268781E-001  0.00000000E+000
CELLS         99       487
  3       99       92       93
  3      116      112      111
  3       48       47      114
  3       18       19      105
  3       97       90       65
  3       52       53       79
  3       54       53       62
  3       39       40        0
  4       98       99       93      103
  4       36       37      116      111
  4      101       54       55      117
  4       27       28      101      117
  4       55       56       27      117
  4       41        1      112      116
  4       37       38       41      116
  4       26       27       56       44
  4      113       46       45      102
  4       81       82      113      102
  4      106      107       68       67
  4       34       35      106       67
  4      105       88       74       73
  4       17       18      105       73
  4      114       47       46      113
  4       82       83      114      113
  4       71       72      107      109
  4       70       71      109      108
  4      111      109      107      106
  4       35       36      111      106
  4      107       72       69       68
  4       11       12      104      115
  4       10       42       11      115
  4      104        9       10      115
  4       83       84       48      114
  4      108      109      111      112
  4        1        2      108      112
  4       65       66       64       63
  4       31       32       65       63
  4       92       91       94      110
  4       96       93       92      110
  4       94       95       96      110
  4      104      100       99       98
  4        8        9      104       98
  4        7        8       98      103
  4        6        7      103       81
  4        5        6       81      102
  4        4        5      102       45
  4        2        3       70      108
  4       66       50       51       64
  4       19       57       88      105
  4       15       16       86       94
  4       14       15       94       91
  4       12       13      100      104
  4       93       82       81      103
  4       84       85       49       48
  4       32       33       97       65
  4       77       53       54      101
  4       28       29       77      101
  4       83       82       93       96
  4       84       83       96       95
  4       86       87       95       94
  4       91       92       99      100
  4       13       14       91      100
  4       85       75       50       49
  4       67       68       90       97
  4       33       34       67       97
  4       30       31       63       78
  4       29       30       78       77
  4       20       21       59       61
  4       19       20       61       57
  4       73       74       87       86
  4       16       17       73       86
  4       87       85       84       95
  4       47       48       69       72
  4       46       47       72       71
  4       80       66       65       90
  4       68       69       80       90
  4       64       51       52       79
  4       63       64       79       78
  4       55       54       59       89
  4       22       56       55       89
  4       59       21       22       89
  4       76       75       74       88
  4       57       58       76       88
  4       74       75       85       87
  4       45       46       71       70
  4       49       50       66       80
  4       69       48       49       80
  4       53       77       78       79
  4       59       54       62       61
  4       51       50       75       76
  4       58       52       51       76
  4        3        4       45       70
  4       58       57       61       62
  4       53       52       58       62
  4       44       23       24       60
  4       25       26       44       60
  4       24       43       25       60
  4       22       23       44       56
  4       38       39        0       41
CELL_TYPES        99
 5
 5
 5
 5
 5
 5
 5
 5
 9
 9
 9
 9
 9
 9
 9
 9
 9
 9
 9
 9
 9
 9
 9
 9
 9
 9
 9
 9
 9
 9
 9
 9
 9
 9
 9
 9
 9
 9
 9
 9
 9
 9
 9
 9
 9
 9
 9
 9
 9
 9
 9
 9
 9
 9
 9
 9
 9
 9
 9
 9
 9
 9
 9
 9
 9
 9
 9
 9
 9
 9
 9
 9
 9
 9
 9
 9
 9
 9
 9
 9
 9
 9
 9
 9
 9
 9
 9
 9
 9
 9
 9
 9
 9
 9
 9
 9
 9
 9
 9
CELL_DATA        99
SCALARS DENSITY double
LOOKUP_TABLE default
  6.22519644E-002
  1.62028221E-001
  1.13199144E-001
  1.45734960E-001
  1.98977117E-001
  1.95828106E-001
  1.96989159E-001
  2.00308054E-001
  6.36877224E-002
  2.04126505E-001
  2.01399167E-001
  2.02160405E-001
  2.02084658E-001
  1.38706655E-001
  2.04473561E-001
  2.01917198E-001
  7.56355173E-002
  7.06094255E-002
  1.85880790E-001
  2.06588016E-001
  1.41471680E-001
  1.27255952E-001
  9.41913420E-002
  8.47416682E-002
  1.35108043E-001
  1.05264759E-001
  1.69290325E-001
  2.05641293E-001
  1.57920637E-001
  5.39284642E-002
  5.22233014E-002
  4.73727122E-002
  1.06363800E-001
  1.35354948E-001
  9.75501363E-002
  1.97228666E-001
  2.04389196E-001
  7.95121201E-002
  7.38328547E-002
  8.89162830E-002
  5.89595965E-002
  4.77231640E-002
  4.66928944E-002
  4.84254311E-002
  5.08700149E-002
  5.37195969E-002
  7.39616440E-002
  1.83323350E-001
  1.56678916E-001
  9.39592740E-002
  7.94046375E-002
  5.96973327E-002
  6.68999525E-002
  1.29944924E-001
  2.04913729E-001
  2.01017948E-001
  2.02701820E-001
  7.61395225E-002
  9.59308078E-002
  1.01548316E-001
  6.25878455E-002
  6.42061200E-002
  1.50679531E-001
  1.94501782E-001
  2.06261578E-001
  2.03753772E-001
  2.03120741E-001
  1.80647542E-001
  1.67254836E-001
  1.22400792E-001
  1.10163250E-001
  1.15842034E-001
  1.30304158E-001
  1.11080309E-001
  1.90673919E-001
  1.74366963E-001
  1.91575651E-001
  2.00046661E-001
  1.99629330E-001
  1.99834344E-001
  1.94396507E-001
  1.53135534E-001
  1.67434957E-001
  1.35341287E-001
  8.67695104E-002
  1.69234561E-001
  1.48326316E-001
  2.00782627E-001
  1.93627232E-001
  1.67682197E-001
  1.80626752E-001
  6.17362607E-002
  1.81371823E-001
  1.91246375E-001
  2.01362217E-001
  2.01494258E-001
  2.01075626E-001
  2.00758341E-001
  2.00259573E-001
SCALARS PRESSURE double
LOOKUP_TABLE default
  2.75610565E+003
  9.72007384E+003
  5.86203298E+003
  8.19058924E+003
  1.26598005E+004
  1.23851627E+004
  1.24880585E+004
  1.27814289E+004
  2.89903781E+003
  1.30395735E+004
  1.28796533E+004
  1.29475946E+004
  1.29412168E+004
  8.19376069E+003
  1.30431542E+004
  1.29261375E+004
  3.66165582E+003
  3.33230620E+003
  1.15082318E+004
  1.33094288E+004
  7.85552177E+003
  6.77950598E+003
  4.69858853E+003
  4.06516136E+003
  7.51735127E+003
  5.62352507E+003
  1.01615585E+004
  1.31834829E+004
  9.18826753E+003
  2.37145730E+003
  2.36779878E+003
  2.09183049E+003
  5.34813205E+003
  7.72404768E+003
  5.32345546E+003
  1.25055924E+004
  1.31430944E+004
  3.62333836E+003
  3.34642795E+003
  4.15891465E+003
  2.59455227E+003
  2.10161717E+003
  2.04930618E+003
  2.14580183E+003
  2.29832310E+003
  2.48124601E+003
  3.75784919E+003
  1.12958657E+004
  9.06918365E+003
  4.44597476E+003
  3.57943829E+003
  2.59031539E+003
  3.08815855E+003
  6.97906993E+003
  1.31849997E+004
  1.28458546E+004
  1.29961962E+004
  3.52216805E+003
  4.66050446E+003
  4.97079306E+003
  2.71884884E+003
  2.76100780E+003
  8.57908781E+003
  1.22528665E+004
  1.33008639E+004
  1.30891389E+004
  1.30335293E+004
  1.10761978E+004
  9.93784739E+003
  6.41585229E+003
  5.53955086E+003
  5.94702897E+003
  7.05646464E+003
  5.81662752E+003
  1.19204255E+004
  1.05190276E+004
  1.20126042E+004
  1.27584900E+004
  1.27229429E+004
  1.27370691E+004
  1.22571188E+004
  8.77584937E+003
  9.94743204E+003
  7.37886656E+003
  4.39055590E+003
  1.00973503E+004
  8.39355674E+003
  1.28245846E+004
  1.21872416E+004
  9.96996449E+003
  1.10647198E+004
  2.97592555E+003
  1.11247944E+004
  1.19803178E+004
  1.28758869E+004
  1.28880958E+004
  1.28510633E+004
  1.28209050E+004
  1.27783620E+004
VECTORS VELOCITY double
  6.46397627E+002 -2.72980329E+002  0.00000000E+000
  6.19163290E+002 -5.03074255E+001  0.00000000E+000
  6.45179234E+002 -1.47032985E+002  0.00000000E+000
  6.35894648E+002 -8.46326927E+001  0.00000000E+000
  5.98841297E+002 -1.84405141E+000  0.00000000E+000
  6.01049794E+002 -5.91778247E+000  0.00000000E+000
  6.00134386E+002 -4.38698724E+000  0.00000000E+000
  5.97769549E+002  1.68020575E-002  0.00000000E+000
  6.33533477E+002 -2.94293306E+002  0.00000000E+000
  5.96819746E+002  5.23110696E+000  0.00000000E+000
  5.96880405E+002  1.34973046E+000  0.00000000E+000
  5.96319133E+002  2.34521028E+000  0.00000000E+000
  5.96418265E+002  2.37193801E+000  0.00000000E+000
  6.21902511E+002 -8.81563679E+001  0.00000000E+000
  5.97522207E+002  6.83419558E+000  0.00000000E+000
  5.96604176E+002  2.22863962E+000  0.00000000E+000
  6.36294412E+002 -2.40142626E+002  0.00000000E+000
  6.33014343E+002 -2.66258025E+002  0.00000000E+000
  6.08820843E+002 -2.00090543E+001  0.00000000E+000
  5.93669510E+002  8.39553354E+000  0.00000000E+000
  6.39969950E+002 -9.19409364E+001  0.00000000E+000
  6.48402721E+002 -1.19344204E+002  0.00000000E+000
  6.45861996E+002 -1.88291463E+002  0.00000000E+000
  6.47256994E+002 -2.13355652E+002  0.00000000E+000
  6.34182244E+002 -1.01053819E+002  0.00000000E+000
  6.37015521E+002 -1.55451828E+002  0.00000000E+000
  6.17753594E+002 -4.45518637E+001  0.00000000E+000
  5.95374231E+002  7.74830030E+000  0.00000000E+000
  6.26946378E+002 -6.30238159E+001  0.00000000E+000
  6.25843573E+002 -3.18137869E+002  0.00000000E+000
  6.20523439E+002 -3.14164055E+002  0.00000000E+000
  6.35697159E+002 -3.23042332E+002  0.00000000E+000
  6.47709031E+002 -1.62558739E+002  0.00000000E+000
  6.28126191E+002 -9.24079705E+001  0.00000000E+000
  6.33466556E+002 -1.54473467E+002  0.00000000E+000
  6.00105675E+002 -4.15805012E+000  0.00000000E+000
  5.94793997E+002  5.24454067E+000  0.00000000E+000
  6.53058359E+002 -2.35335061E+002  0.00000000E+000
  6.50853134E+002 -2.44420729E+002  0.00000000E+000
  6.52735245E+002 -2.10190511E+002  0.00000000E+000
  6.37488828E+002 -3.05105753E+002  0.00000000E+000
  6.34497006E+002 -3.23175216E+002  0.00000000E+000
  6.38218266E+002 -3.15673288E+002  0.00000000E+000
  6.40270504E+002 -3.03345990E+002  0.00000000E+000
  6.41662705E+002 -2.90079287E+002  0.00000000E+000
  6.43681679E+002 -2.71738957E+002  0.00000000E+000
  6.39959915E+002 -2.07598127E+002  0.00000000E+000
  6.10220197E+002 -2.34440465E+001  0.00000000E+000
  6.28583630E+002 -6.52251425E+001  0.00000000E+000
  6.56999452E+002 -1.96619607E+002  0.00000000E+000
  6.53411700E+002 -2.38693948E+002  0.00000000E+000
  6.40742660E+002 -2.97691270E+002  0.00000000E+000
  6.33479119E+002 -2.78167873E+002  0.00000000E+000
  6.44061806E+002 -1.15461858E+002  0.00000000E+000
  5.94505892E+002  5.82978283E+000  0.00000000E+000
  5.97206275E+002  8.91459962E-001  0.00000000E+000
  5.95954866E+002  3.07546206E+000  0.00000000E+000
  6.50835631E+002 -2.32895644E+002  0.00000000E+000
  6.49345276E+002 -1.91409947E+002  0.00000000E+000
  6.56912196E+002 -1.75620592E+002  0.00000000E+000
  6.51911300E+002 -2.74360295E+002  0.00000000E+000
  6.49727983E+002 -2.74130329E+002  0.00000000E+000
  6.33628492E+002 -7.59290103E+001  0.00000000E+000
  6.02564008E+002 -7.98024073E+000  0.00000000E+000
  5.93503222E+002  7.62383589E+000  0.00000000E+000
  5.95209157E+002  4.41805214E+000  0.00000000E+000
  5.95651432E+002  3.60999275E+000  0.00000000E+000
  6.11206411E+002 -2.71886892E+001  0.00000000E+000
  6.20812217E+002 -4.77384466E+001  0.00000000E+000
  6.52232020E+002 -1.30083726E+002  0.00000000E+000
  6.55356183E+002 -1.57932464E+002  0.00000000E+000
  6.49458677E+002 -1.46311850E+002  0.00000000E+000
  6.41879295E+002 -1.12661079E+002  0.00000000E+000
  6.42735097E+002 -1.49489731E+002  0.00000000E+000
  6.05044676E+002 -1.27577232E+001  0.00000000E+000
  6.17222895E+002 -3.69496352E+001  0.00000000E+000
  6.04152279E+002 -1.17025468E+001  0.00000000E+000
  5.97963432E+002 -3.81975506E-001  0.00000000E+000
  5.98156626E+002 -1.25322363E+000  0.00000000E+000
  5.98087289E+002 -5.77110886E-001  0.00000000E+000
  6.01767152E+002 -8.40325699E+000  0.00000000E+000
  6.31160560E+002 -7.10440899E+001  0.00000000E+000
  6.21419430E+002 -4.66082712E+001  0.00000000E+000
  6.42303271E+002 -1.04132007E+002  0.00000000E+000
  6.37833852E+002 -2.04535571E+002  0.00000000E+000
  6.20854962E+002 -4.48038247E+001  0.00000000E+000
  6.35365553E+002 -7.99161553E+001  0.00000000E+000
  5.97389544E+002  5.82106406E-001  0.00000000E+000
  6.02877896E+002 -8.86536826E+000  0.00000000E+000
  6.21630779E+002 -4.70710903E+001  0.00000000E+000
  6.12139545E+002 -2.72074602E+001  0.00000000E+000
  6.44389864E+002 -2.45968676E+002  0.00000000E+000
  6.11773927E+002 -2.59008686E+001  0.00000000E+000
  6.04360074E+002 -1.20610643E+001  0.00000000E+000
  5.96975041E+002  1.38933371E+000  0.00000000E+000
  5.97170549E+002  1.71202118E+000  0.00000000E+000
  5.97289378E+002  1.10546653E+000  0.00000000E+000
  5.97315919E+002  5.29104302E-001  0.00000000E+000
  5.97772915E+002 -4.45360334E-002  0.00000000E+000
