# vtk DataFile Version 2.0
TYPHON_NS
ASCII
DATASET UNSTRUCTURED_GRID
POINTS       118 double
 -1.00000001E-001  0.00000000E+000  0.00000000E+000
  9.09090936E-002 -4.54545468E-002  0.00000000E+000
  1.81818187E-001 -9.09090936E-002  0.00000000E+000
  2.72727281E-001 -1.36363640E-001  0.00000000E+000
  3.63636374E-001 -1.81818187E-001  0.00000000E+000
  4.54545498E-001 -2.27272749E-001  0.00000000E+000
  5.45454562E-001 -2.72727281E-001  0.00000000E+000
  6.36363685E-001 -3.18181843E-001  0.00000000E+000
  7.27272749E-001 -3.63636374E-001  0.00000000E+000
  8.18181813E-001 -4.09090906E-001  0.00000000E+000
  9.09090996E-001 -4.54545498E-001  0.00000000E+000
  1.00000000E+000 -4.00000006E-001  0.00000000E+000
  1.00000000E+000 -2.99999982E-001  0.00000000E+000
  1.00000000E+000 -1.99999988E-001  0.00000000E+000
  1.00000000E+000 -9.99999791E-002  0.00000000E+000
  1.00000000E+000  1.49011612E-008  0.00000000E+000
  1.00000000E+000  1.00000009E-001  0.00000000E+000
  1.00000000E+000  2.00000048E-001  0.00000000E+000
  1.00000000E+000  3.00000042E-001  0.00000000E+000
  1.00000000E+000  4.00000125E-001  0.00000000E+000
  1.00000000E+000  5.00000119E-001  0.00000000E+000
  1.00000000E+000  6.00000143E-001  0.00000000E+000
  1.00000000E+000  7.00000167E-001  0.00000000E+000
  1.00000000E+000  8.00000191E-001  0.00000000E+000
  1.00000000E+000  9.00000215E-001  0.00000000E+000
  9.25000012E-001  9.37500000E-001  0.00000000E+000
  8.50000024E-001  8.75000000E-001  0.00000000E+000
  7.74999976E-001  8.12500000E-001  0.00000000E+000
  6.99999988E-001  7.50000000E-001  0.00000000E+000
  6.25000000E-001  6.87500000E-001  0.00000000E+000
  5.50000012E-001  6.25000000E-001  0.00000000E+000
  4.74999994E-001  5.62500000E-001  0.00000000E+000
  4.00000006E-001  5.00000000E-001  0.00000000E+000
  3.24999988E-001  4.37500000E-001  0.00000000E+000
  2.50000000E-001  3.75000000E-001  0.00000000E+000
  1.74999997E-001  3.12500000E-001  0.00000000E+000
  9.99999940E-002  2.50000000E-001  0.00000000E+000
  2.49999985E-002  1.87500000E-001  0.00000000E+000
 -5.00000045E-002  1.25000000E-001  0.00000000E+000
 -1.25000000E-001  6.25000000E-002  0.00000000E+000
 -2.00000003E-001  0.00000000E+000  0.00000000E+000
  0.00000000E+000  0.00000000E+000  0.00000000E+000
  1.00000000E+000 -5.00000000E-001  0.00000000E+000
  1.00000000E+000  1.00000000E+000  0.00000000E+000
  9.21576557E-001  8.30534823E-001  0.00000000E+000
  4.07368703E-001 -9.17658024E-002  0.00000000E+000
  4.50758637E-001 -5.14906122E-003  0.00000000E+000
  4.97207763E-001  7.28685315E-002  0.00000000E+000
  5.61362204E-001  1.29498499E-001  0.00000000E+000
  6.09097966E-001  2.32334025E-001  0.00000000E+000
  6.50737678E-001  3.21886409E-001  0.00000000E+000
  6.92434295E-001  4.03597197E-001  0.00000000E+000
  7.28164485E-001  4.77976113E-001  0.00000000E+000
  7.42961475E-001  5.48546548E-001  0.00000000E+000
  8.13662590E-001  6.07570542E-001  0.00000000E+000
  8.53457431E-001  6.87978992E-001  0.00000000E+000
  8.87508491E-001  7.57753495E-001  0.00000000E+000
  8.91027111E-001  4.26458825E-001  0.00000000E+000
  8.01756814E-001  4.51273076E-001  0.00000000E+000
  9.09691656E-001  5.95467158E-001  0.00000000E+000
  9.48858856E-001  8.89345013E-001  0.00000000E+000
  9.04073975E-001  5.13037641E-001  0.00000000E+000
  8.15613713E-001  5.30106952E-001  0.00000000E+000
  5.43473514E-001  4.95770132E-001  0.00000000E+000
  6.18958927E-001  4.43474612E-001  0.00000000E+000
  4.68018351E-001  4.13731992E-001  0.00000000E+000
  5.64984068E-001  3.65558493E-001  0.00000000E+000
  3.20897069E-001  3.10939929E-001  0.00000000E+000
  3.93163865E-001  2.55165816E-001  0.00000000E+000
  4.73802097E-001  1.97899560E-001  0.00000000E+000
  3.19501522E-001 -4.59096000E-002  0.00000000E+000
  3.66232665E-001  4.12814057E-002  0.00000000E+000
  4.18049383E-001  1.22554030E-001  0.00000000E+000
  9.16737767E-001  2.23093984E-001  0.00000000E+000
  8.27798927E-001  2.52040510E-001  0.00000000E+000
  7.38471455E-001  2.84697847E-001  0.00000000E+000
  7.72773448E-001  3.70247738E-001  0.00000000E+000
  6.81849244E-001  6.18393872E-001  0.00000000E+000
  6.12734355E-001  5.61847776E-001  0.00000000E+000
  6.75704811E-001  5.07961262E-001  0.00000000E+000
  5.22741409E-001  2.82054216E-001  0.00000000E+000
  5.85291823E-001 -1.77667614E-001  0.00000000E+000
  6.22322600E-001 -8.29238697E-002  0.00000000E+000
  6.46484068E-001  9.58773514E-003  0.00000000E+000
  6.69826025E-001  9.89595336E-002  0.00000000E+000
  7.03968135E-001  1.93632816E-001  0.00000000E+000
  8.96653287E-001  1.23050234E-001  0.00000000E+000
  7.99196872E-001  1.57760973E-001  0.00000000E+000
  8.58823063E-001  3.41243739E-001  0.00000000E+000
  9.21049696E-001  6.61148772E-001  0.00000000E+000
  4.43286775E-001  3.31278263E-001  0.00000000E+000
  8.91942074E-001 -9.76305783E-002  0.00000000E+000
  8.05179987E-001 -1.07004843E-001  0.00000000E+000
  7.28261333E-001 -1.20657938E-001  0.00000000E+000
  8.72113465E-001  9.77717853E-003  0.00000000E+000
  7.69234720E-001  6.13428672E-002  0.00000000E+000
  7.36896236E-001 -2.21453613E-002  0.00000000E+000
  3.89300546E-001  3.73362546E-001  0.00000000E+000
  7.71928846E-001 -2.66943208E-001  0.00000000E+000
  7.99531628E-001 -1.72423053E-001  0.00000000E+000
  8.93478694E-001 -1.95488828E-001  0.00000000E+000
  7.46801016E-001  6.75327406E-001  0.00000000E+000
  4.94657327E-001 -1.35368935E-001  0.00000000E+000
  6.80461422E-001 -2.20862651E-001  0.00000000E+000
  8.82820009E-001 -3.12067731E-001  0.00000000E+000
  9.43890208E-001  3.16084472E-001  0.00000000E+000
  2.50603048E-001  2.36763350E-001  0.00000000E+000
  3.34506447E-001  1.76718629E-001  0.00000000E+000
  2.30568285E-001  1.29548079E-003  0.00000000E+000
  2.75716878E-001  9.11855905E-002  0.00000000E+000
  8.04729896E-001 -3.97910086E-002  0.00000000E+000
  1.71277974E-001  1.44639455E-001  0.00000000E+000
  1.44520342E-001  4.90298563E-002  0.00000000E+000
  5.31636708E-001 -4.52494264E-002  0.00000000E+000
  5.59172686E-001  4.16763348E-002  0.00000000E+000
  9.30637001E-001 -3.88871078E-001  0.00000000E+000
  8.51995786E-002  9.52923278E-002  0.00000000E+000
  7.91752808E-001  7.25268799E-001  0.00000000E+000
CELLS         99       487
  3       99       92       93
  3      116      112      111
  3       48       47      114
  3       18       19      105
  3       97       90       65
  3       52       53       79
  3       54       53       62
  3       39       40        0
  4       98       99       93      103
  4       36       37      116      111
  4      101       54       55      117
  4       27       28      101      117
  4       55       56       27      117
  4       41        1      112      116
  4       37       38       41      116
  4       26       27       56       44
  4      113       46       45      102
  4       81       82      113      102
  4      106      107       68       67
  4       34       35      106       67
  4      105       88       74       73
  4       17       18      105       73
  4      114       47       46      113
  4       82       83      114      113
  4       71       72      107      109
  4       70       71      109      108
  4      111      109      107      106
  4       35       36      111      106
  4      107       72       69       68
  4       11       12      104      115
  4       10       42       11      115
  4      104        9       10      115
  4       83       84       48      114
  4      108      109      111      112
  4        1        2      108      112
  4       65       66       64       63
  4       31       32       65       63
  4       92       91       94      110
  4       96       93       92      110
  4       94       95       96      110
  4      104      100       99       98
  4        8        9      104       98
  4        7        8       98      103
  4        6        7      103       81
  4        5        6       81      102
  4        4        5      102       45
  4        2        3       70      108
  4       66       50       51       64
  4       19       57       88      105
  4       15       16       86       94
  4       14       15       94       91
  4       12       13      100      104
  4       93       82       81      103
  4       84       85       49       48
  4       32       33       97       65
  4       77       53       54      101
  4       28       29       77      101
  4       83       82       93       96
  4       84       83       96       95
  4       86       87       95       94
  4       91       92       99      100
  4       13       14       91      100
  4       85       75       50       49
  4       67       68       90       97
  4       33       34       67       97
  4       30       31       63       78
  4       29       30       78       77
  4       20       21       59       61
  4       19       20       61       57
  4       73       74       87       86
  4       16       17       73       86
  4       87       85       84       95
  4       47       48       69       72
  4       46       47       72       71
  4       80       66       65       90
  4       68       69       80       90
  4       64       51       52       79
  4       63       64       79       78
  4       55       54       59       89
  4       22       56       55       89
  4       59       21       22       89
  4       76       75       74       88
  4       57       58       76       88
  4       74       75       85       87
  4       45       46       71       70
  4       49       50       66       80
  4       69       48       49       80
  4       53       77       78       79
  4       59       54       62       61
  4       51       50       75       76
  4       58       52       51       76
  4        3        4       45       70
  4       58       57       61       62
  4       53       52       58       62
  4       44       23       24       60
  4       25       26       44       60
  4       24       43       25       60
  4       22       23       44       56
  4       38       39        0       41
CELL_TYPES        99
 5
 5
 5
 5
 5
 5
 5
 5
 9
 9
 9
 9
 9
 9
 9
 9
 9
 9
 9
 9
 9
 9
 9
 9
 9
 9
 9
 9
 9
 9
 9
 9
 9
 9
 9
 9
 9
 9
 9
 9
 9
 9
 9
 9
 9
 9
 9
 9
 9
 9
 9
 9
 9
 9
 9
 9
 9
 9
 9
 9
 9
 9
 9
 9
 9
 9
 9
 9
 9
 9
 9
 9
 9
 9
 9
 9
 9
 9
 9
 9
 9
 9
 9
 9
 9
 9
 9
 9
 9
 9
 9
 9
 9
 9
 9
 9
 9
 9
 9
CELL_DATA        99
SCALARS Density double
LOOKUP_TABLE default
  6.22519667E-002
  1.62028217E-001
  1.13199144E-001
  1.45734960E-001
  1.98977118E-001
  1.95828105E-001
  1.96989157E-001
  2.00308054E-001
  6.36877255E-002
  2.04126504E-001
  2.01399166E-001
  2.02160405E-001
  2.02084658E-001
  1.38706654E-001
  2.04473561E-001
  2.01917198E-001
  7.56355101E-002
  7.06094243E-002
  1.85880790E-001
  2.06588016E-001
  1.41471681E-001
  1.27255951E-001
  9.41913423E-002
  8.47416674E-002
  1.35108046E-001
  1.05264752E-001
  1.69290330E-001
  2.05641293E-001
  1.57920633E-001
  5.39284606E-002
  5.22232937E-002
  4.73727108E-002
  1.06363799E-001
  1.35354944E-001
  9.75501372E-002
  1.97228668E-001
  2.04389195E-001
  7.95121230E-002
  7.38328561E-002
  8.89162839E-002
  5.89595969E-002
  4.77231632E-002
  4.66928949E-002
  4.84254328E-002
  5.08700146E-002
  5.37195973E-002
  7.39616451E-002
  1.83323350E-001
  1.56678915E-001
  9.39592731E-002
  7.94046362E-002
  5.96973309E-002
  6.68999544E-002
  1.29944924E-001
  2.04913729E-001
  2.01017947E-001
  2.02701820E-001
  7.61395216E-002
  9.59308086E-002
  1.01548318E-001
  6.25878476E-002
  6.42061196E-002
  1.50679531E-001
  1.94501783E-001
  2.06261578E-001
  2.03753771E-001
  2.03120740E-001
  1.80647541E-001
  1.67254837E-001
  1.22400791E-001
  1.10163249E-001
  1.15842033E-001
  1.30304156E-001
  1.11080314E-001
  1.90673918E-001
  1.74366963E-001
  1.91575652E-001
  2.00046661E-001
  1.99629331E-001
  1.99834344E-001
  1.94396507E-001
  1.53135534E-001
  1.67434956E-001
  1.35341286E-001
  8.67695140E-002
  1.69234560E-001
  1.48326317E-001
  2.00782626E-001
  1.93627232E-001
  1.67682194E-001
  1.80626750E-001
  6.17362630E-002
  1.81371821E-001
  1.91246372E-001
  2.01362217E-001
  2.01494258E-001
  2.01075626E-001
  2.00758340E-001
  2.00259573E-001
SCALARS Pressure double
LOOKUP_TABLE default
  2.75610577E+003
  9.72007348E+003
  5.86203302E+003
  8.19058923E+003
  1.26598006E+004
  1.23851626E+004
  1.24880584E+004
  1.27814289E+004
  2.89903795E+003
  1.30395734E+004
  1.28796532E+004
  1.29475946E+004
  1.29412168E+004
  8.19376066E+003
  1.30431542E+004
  1.29261375E+004
  3.66165541E+003
  3.33230617E+003
  1.15082318E+004
  1.33094288E+004
  7.85552185E+003
  6.77950592E+003
  4.69858854E+003
  4.06516133E+003
  7.51735149E+003
  5.62352458E+003
  1.01615589E+004
  1.31834829E+004
  9.18826724E+003
  2.37145705E+003
  2.36779834E+003
  2.09183044E+003
  5.34813199E+003
  7.72404734E+003
  5.32345554E+003
  1.25055925E+004
  1.31430944E+004
  3.62333844E+003
  3.34642799E+003
  4.15891472E+003
  2.59455231E+003
  2.10161714E+003
  2.04930620E+003
  2.14580188E+003
  2.29832309E+003
  2.48124610E+003
  3.75784931E+003
  1.12958657E+004
  9.06918358E+003
  4.44597472E+003
  3.57943824E+003
  2.59031532E+003
  3.08815865E+003
  6.97906996E+003
  1.31849996E+004
  1.28458545E+004
  1.29961962E+004
  3.52216800E+003
  4.66050453E+003
  4.97079322E+003
  2.71884891E+003
  2.76100773E+003
  8.57908783E+003
  1.22528666E+004
  1.33008638E+004
  1.30891388E+004
  1.30335292E+004
  1.10761977E+004
  9.93784742E+003
  6.41585220E+003
  5.53955081E+003
  5.94702886E+003
  7.05646454E+003
  5.81662784E+003
  1.19204255E+004
  1.05190276E+004
  1.20126043E+004
  1.27584900E+004
  1.27229430E+004
  1.27370690E+004
  1.22571188E+004
  8.77584939E+003
  9.94743197E+003
  7.37886649E+003
  4.39055608E+003
  1.00973502E+004
  8.39355686E+003
  1.28245845E+004
  1.21872416E+004
  9.96996432E+003
  1.10647198E+004
  2.97592568E+003
  1.11247942E+004
  1.19803176E+004
  1.28758869E+004
  1.28880958E+004
  1.28510633E+004
  1.28209049E+004
  1.27783620E+004
VECTORS Velocity double
  6.46397622E+002 -2.72980322E+002  0.00000000E+000
  6.19163294E+002 -5.03074320E+001  0.00000000E+000
  6.45179236E+002 -1.47032985E+002  0.00000000E+000
  6.35894648E+002 -8.46326923E+001  0.00000000E+000
  5.98841297E+002 -1.84405027E+000  0.00000000E+000
  6.01049794E+002 -5.91778271E+000  0.00000000E+000
  6.00134388E+002 -4.38698952E+000  0.00000000E+000
  5.97769549E+002  1.68020550E-002  0.00000000E+000
  6.33533472E+002 -2.94293300E+002  0.00000000E+000
  5.96819747E+002  5.23110627E+000  0.00000000E+000
  5.96880406E+002  1.34973016E+000  0.00000000E+000
  5.96319133E+002  2.34521013E+000  0.00000000E+000
  5.96418265E+002  2.37193794E+000  0.00000000E+000
  6.21902511E+002 -8.81563673E+001  0.00000000E+000
  5.97522207E+002  6.83419541E+000  0.00000000E+000
  5.96604176E+002  2.22863958E+000  0.00000000E+000
  6.36294414E+002 -2.40142630E+002  0.00000000E+000
  6.33014341E+002 -2.66258026E+002  0.00000000E+000
  6.08820844E+002 -2.00090554E+001  0.00000000E+000
  5.93669510E+002  8.39553319E+000  0.00000000E+000
  6.39969947E+002 -9.19409359E+001  0.00000000E+000
  6.48402720E+002 -1.19344205E+002  0.00000000E+000
  6.45861997E+002 -1.88291469E+002  0.00000000E+000
  6.47256993E+002 -2.13355658E+002  0.00000000E+000
  6.34182241E+002 -1.01053815E+002  0.00000000E+000
  6.37015523E+002 -1.55451835E+002  0.00000000E+000
  6.17753593E+002 -4.45518571E+001  0.00000000E+000
  5.95374231E+002  7.74830027E+000  0.00000000E+000
  6.26946379E+002 -6.30238221E+001  0.00000000E+000
  6.25843596E+002 -3.18137880E+002  0.00000000E+000
  6.20523468E+002 -3.14164071E+002  0.00000000E+000
  6.35697158E+002 -3.23042332E+002  0.00000000E+000
  6.47709034E+002 -1.62558738E+002  0.00000000E+000
  6.28126194E+002 -9.24079808E+001  0.00000000E+000
  6.33466554E+002 -1.54473467E+002  0.00000000E+000
  6.00105674E+002 -4.15804838E+000  0.00000000E+000
  5.94793997E+002  5.24454019E+000  0.00000000E+000
  6.53058355E+002 -2.35335059E+002  0.00000000E+000
  6.50853131E+002 -2.44420728E+002  0.00000000E+000
  6.52735242E+002 -2.10190511E+002  0.00000000E+000
  6.37488821E+002 -3.05105758E+002  0.00000000E+000
  6.34497005E+002 -3.23175216E+002  0.00000000E+000
  6.38218263E+002 -3.15673279E+002  0.00000000E+000
  6.40270501E+002 -3.03345990E+002  0.00000000E+000
  6.41662702E+002 -2.90079286E+002  0.00000000E+000
  6.43681677E+002 -2.71738952E+002  0.00000000E+000
  6.39959911E+002 -2.07598126E+002  0.00000000E+000
  6.10220197E+002 -2.34440465E+001  0.00000000E+000
  6.28583631E+002 -6.52251434E+001  0.00000000E+000
  6.56999454E+002 -1.96619607E+002  0.00000000E+000
  6.53411704E+002 -2.38693947E+002  0.00000000E+000
  6.40742672E+002 -2.97691276E+002  0.00000000E+000
  6.33479116E+002 -2.78167873E+002  0.00000000E+000
  6.44061807E+002 -1.15461857E+002  0.00000000E+000
  5.94505892E+002  5.82978211E+000  0.00000000E+000
  5.97206275E+002  8.91458701E-001  0.00000000E+000
  5.95954866E+002  3.07546190E+000  0.00000000E+000
  6.50835629E+002 -2.32895647E+002  0.00000000E+000
  6.49345277E+002 -1.91409949E+002  0.00000000E+000
  6.56912194E+002 -1.75620591E+002  0.00000000E+000
  6.51911298E+002 -2.74360291E+002  0.00000000E+000
  6.49727990E+002 -2.74130328E+002  0.00000000E+000
  6.33628492E+002 -7.59290101E+001  0.00000000E+000
  6.02564007E+002 -7.98023912E+000  0.00000000E+000
  5.93503222E+002  7.62383570E+000  0.00000000E+000
  5.95209157E+002  4.41805164E+000  0.00000000E+000
  5.95651432E+002  3.60999241E+000  0.00000000E+000
  6.11206413E+002 -2.71886898E+001  0.00000000E+000
  6.20812218E+002 -4.77384443E+001  0.00000000E+000
  6.52232014E+002 -1.30083728E+002  0.00000000E+000
  6.55356186E+002 -1.57932464E+002  0.00000000E+000
  6.49458675E+002 -1.46311853E+002  0.00000000E+000
  6.41879296E+002 -1.12661081E+002  0.00000000E+000
  6.42735097E+002 -1.49489726E+002  0.00000000E+000
  6.05044676E+002 -1.27577233E+001  0.00000000E+000
  6.17222894E+002 -3.69496344E+001  0.00000000E+000
  6.04152278E+002 -1.17025456E+001  0.00000000E+000
  5.97963432E+002 -3.81975513E-001  0.00000000E+000
  5.98156626E+002 -1.25322308E+000  0.00000000E+000
  5.98087289E+002 -5.77111258E-001  0.00000000E+000
  6.01767153E+002 -8.40325729E+000  0.00000000E+000
  6.31160560E+002 -7.10440905E+001  0.00000000E+000
  6.21419431E+002 -4.66082730E+001  0.00000000E+000
  6.42303271E+002 -1.04132009E+002  0.00000000E+000
  6.37833854E+002 -2.04535574E+002  0.00000000E+000
  6.20854962E+002 -4.48038252E+001  0.00000000E+000
  6.35365551E+002 -7.99161519E+001  0.00000000E+000
  5.97389545E+002  5.82104618E-001  0.00000000E+000
  6.02877896E+002 -8.86536800E+000  0.00000000E+000
  6.21630780E+002 -4.70710932E+001  0.00000000E+000
  6.12139545E+002 -2.72074616E+001  0.00000000E+000
  6.44389860E+002 -2.45968674E+002  0.00000000E+000
  6.11773927E+002 -2.59008718E+001  0.00000000E+000
  6.04360077E+002 -1.20610681E+001  0.00000000E+000
  5.96975042E+002  1.38933319E+000  0.00000000E+000
  5.97170549E+002  1.71202116E+000  0.00000000E+000
  5.97289378E+002  1.10546634E+000  0.00000000E+000
  5.97315920E+002  5.29103691E-001  0.00000000E+000
  5.97772915E+002 -4.45360262E-002  0.00000000E+000
