VARIABLES="X","Y","Z","T"
ZONE T="USTMESH"
  0.00   0.00   0.00 1001.41491
 -0.50   0.00   0.00 862.73198
 -1.50   0.00   0.00 644.11574
 -2.50   0.00   0.00 537.41501
 -3.50   0.00   0.00 505.22150
 -4.50   0.00   0.00 499.28295
 -5.50   0.00   0.00 499.27164
 -6.50   0.00   0.00 504.97841
 -7.50   0.00   0.00 536.04168
 -8.50   0.00   0.00 640.10763
 -9.50   0.00   0.00 855.94008
-10.00   0.00   0.00 994.13981
